 Q-Chem 4.2, Q-Chem, Inc., Pleasanton, CA (2014).
 Q-Chem 4.2.0.0  for Mac (Intel) OS X

User input:
--------------------------------------------------------------
$molecule
2 1
C   -1.5634344    3.6684473    0.7974220
C   -0.0687311    3.9460387    0.7978112
O    0.3215135    4.3959990   -0.4831666
C    1.7021604    4.7171724   -0.5056990
C    2.4960507    3.6347536   -1.2332024
O    2.3596728    2.4143815   -0.5383744
C    3.4066235    1.5346670   -0.8842713
C    3.0649912    0.1448562   -0.3649173
O    1.9032651   -0.3198274   -1.0223690
C    1.2513207   -1.3201306   -0.2643742
C    0.0341210   -0.7194486    0.4358058
O   -0.6361242   -1.6991486    1.1800749
C   -2.9627702    0.1459120   -3.0330922
C   -3.2302061   -1.1982814   -2.3722082
O   -3.2377899    1.1760723   -2.1096959
C   -3.1423005    2.4230692   -2.7609902
C    3.3378360   -0.9892193    3.7547949
C    2.3565993    0.1637697    3.9020880
O    2.9959192    1.3644861    3.5282189
C    2.1309222    2.4489450    3.7785673
Mg    0.0041118    1.6689453   -2.0387355
H   -1.8791357    3.3150943    1.8019831
H   -1.8044786    2.8848035    0.0491008
H   -2.1222824    4.5962498    0.5507186
H    0.4519909    2.9985827    1.0554615
H    0.1268250    4.7244790    1.5705162
H    2.1457774    4.8844580    0.5054889
H    1.8201155    5.6775843   -1.0507179
H    3.5566085    3.9794711   -1.2685733
H    2.1013382    3.5248835   -2.2674740
H    4.3516358    1.8675932   -0.3997186
H    3.5436193    1.4656094   -1.9890929
H    2.9227303    0.2379929    0.7374868
H    3.9109820   -0.5441867   -0.5800953
H    1.9161840   -1.8233297    0.4790352
H    0.9171917   -2.1174676   -0.9615475
H   -0.6552880   -0.2552357   -0.3049201
H    0.3592042    0.0876645    1.1239844
H   -1.1546074   -2.2438685    0.5317872
H   -3.6257306    0.2148150   -3.9267801
H   -1.8929034    0.1734978   -3.3407433
H   -4.2944215   -1.2634566   -2.0607612
H   -2.5834542   -1.3210778   -1.4788581
H   -3.0137189   -2.0193693   -3.0877556
H   -3.2923736    3.2233596   -2.0080910
H   -3.9424271    2.5379102   -3.5249147
H   -2.1334267    2.5796638   -3.2029052
H    2.8422145   -1.9421645    4.0363799
H    4.2141399   -0.8286734    4.4180318
H    3.6874916   -1.0641234    2.7037230
H    2.0302607    0.1942488    4.9673829
H    1.4877066   -0.0386617    3.2378868
H    2.6015821    3.3713682    3.3805951
H    1.9823591    2.5957842    4.8710175
H    1.1584000    2.3299056    3.2523366
$end

$rem
BASIS  =  3-21G
METHOD  =  HF
$end
--------------------------------------------------------------

             Standard Nuclear Orientation (Angstroms)
    I     Atom           X                Y                Z
 ----------------------------------------------------------------
    1      C      -1.0559701476    -1.8944159710    -2.4481880291
    2      C       0.0333634360    -2.3901990056    -1.5107731701
    3      O      -0.5617968938    -3.0580366199    -0.4174130527
    4      C       0.4275012207    -3.5824635898     0.4521336788
    5      C       0.5361839785    -2.7363109657     1.7183750693
    6      O       0.9342616082    -1.4286174228     1.3688543371
    7      C       1.4838135556    -0.7688076194     2.4879127430
    8      C       1.6156291945     0.7125819871     2.1621448249
    9      O       0.3268907431     1.2554308236     1.9565980857
   10      C       0.3858014890     2.4329765247     1.1755028577
   11      C      -0.0416075259     2.1186883655    -0.2566949268
   12      O      -0.0058657943     3.2769793036    -1.0441349834
   13      C      -4.6151193983     1.2632128126     0.0818459102
   14      C      -4.3335845811     2.7074037430    -0.3057056629
   15      O      -4.2093750486     0.4163397874    -0.9706294614
   16      C      -4.6083237760    -0.9055965707    -0.6849234286
   17      C       4.6423580026     2.3248633886    -0.4014584089
   18      C       4.0001584296     1.3613015158    -1.3878825461
   19      O       4.1892796305     0.0397721167    -0.9317892109
   20      C       3.7037607043    -0.8604861934    -1.9017127050
   21      Mg     -1.7967269946    -0.5427439972     1.0336593068
   22      H      -0.5963065859    -1.3687629133    -3.3119396891
   23      H      -1.7256345378    -1.1888155811    -1.9135271793
   24      H      -1.6522804288    -2.7523725338    -2.8254355852
   25      H       0.6096028001    -1.5058346483    -1.1628423880
   26      H       0.6864111743    -3.0806821867    -2.0921905193
   27      H       1.4371127862    -3.6798310921    -0.0152906895
   28      H       0.1232294992    -4.6129507954     0.7329625649
   29      H       1.2818138753    -3.2375692684     2.3799189253
   30      H      -0.4544987527    -2.7055658751     2.2235380180
   31      H       2.4988732705    -1.1728312636     2.7002758543
   32      H       0.8337255456    -0.8669508389     3.3889793649
   33      H       2.2597199619     0.7875995679     1.2545508329
   34      H       2.1030209587     1.2328277375     3.0157113136
   35      H       1.3890380816     2.9242979266     1.1809523807
   36      H      -0.3169531426     3.1726603937     1.6141858780
   37      H      -1.0601936507     1.6695994077    -0.2726529647
   38      H       0.6481992677     1.3695960376    -0.6968400170
   39      H      -0.8155821983     3.8031473389    -0.8132062414
   40      H      -5.7102887410     1.1774265049     0.2720747149
   41      H      -4.0414341154     1.0355213186     1.0087045430
   42      H      -4.8997735201     2.9715835985    -1.2240958563
   43      H      -3.2494074146     2.8483849246    -0.4957729014
   44      H      -4.6450597563     3.3854983559     0.5166270192
   45      H      -4.2223573966    -1.5683431021    -1.4859483060
   46      H      -5.7165987637    -0.9987945782    -0.6884385658
   47      H      -4.1733372152    -1.2682340074     0.2726348525
   48      H       4.4905857383     3.3699381258    -0.7447065863
   49      H       5.7322393886     2.1235501630    -0.3293595452
   50      H       4.1847289613     2.2076754765     0.6032626746
   51      H       4.4854593950     1.5204024224    -2.3785636027
   52      H       2.9159113789     1.6024234726    -1.4460612784
   53      H       3.7586747909    -1.8872203831    -1.4850971505
   54      H       4.3353561079    -0.8384592762    -2.8169625320
   55      H       2.6357857206    -0.6674209013    -2.1447019743
 ----------------------------------------------------------------

    8   -1191.3755649547      5.23E-06 Convergence criterion met
 Total energy in the final basis set = -1191.3755649547

                    Orbital Energies (a.u.)
 --------------------------------------------------------------

 Alpha MOs
 -- Occupied --
-49.219 -20.756 -20.754 -20.737 -20.729 -20.693 -20.621 -11.502
-11.497 -11.494 -11.491 -11.486 -11.480 -11.478 -11.474 -11.463
-11.401 -11.397 -11.389 -11.386 -11.319  -4.261  -2.776  -2.775
 -2.774  -1.684  -1.663  -1.661  -1.642  -1.601  -1.547  -1.316
 -1.281  -1.281  -1.246  -1.212  -1.186  -1.178  -1.111  -1.097
 -1.083  -1.083  -1.078  -1.068  -0.986  -0.968  -0.959  -0.953
 -0.951  -0.933  -0.923  -0.914  -0.906  -0.894  -0.888  -0.885
 -0.862  -0.850  -0.845  -0.841  -0.831  -0.815  -0.810  -0.808
 -0.788  -0.787  -0.769  -0.764  -0.754  -0.754  -0.749  -0.747
 -0.745  -0.734  -0.733  -0.729  -0.725  -0.715  -0.705  -0.699
 -0.691  -0.685  -0.664  -0.660  -0.659  -0.657  -0.626  -0.579

          Ground-State Mulliken Net Atomic Charges

     Atom                 Charge (a.u.)
  ----------------------------------------
      1 C                    -0.606027
      2 C                    -0.122998
      3 O                    -0.670597
      4 C                    -0.097055
      5 C                    -0.116633
      6 O                    -0.680356
      7 C                    -0.119471
      8 C                    -0.113343
      9 O                    -0.699924
     10 C                    -0.136091
     11 C                    -0.077048
     12 O                    -0.624724
     13 C                    -0.086472
     14 C                    -0.593898
     15 O                    -0.624649
     16 C                    -0.274150
     17 C                    -0.595362
     18 C                    -0.069911
     19 O                    -0.651828
     20 C                    -0.242797
     21 Mg                    1.457123
     22 H                     0.268348
     23 H                     0.131180
     24 H                     0.270688
     25 H                     0.212825
     26 H                     0.265560
     27 H                     0.266488
     28 H                     0.275454
     29 H                     0.283001
     30 H                     0.148061
     31 H                     0.286119
     32 H                     0.220260
     33 H                     0.276695
     34 H                     0.273735
     35 H                     0.294889
     36 H                     0.248524
     37 H                     0.080806
     38 H                     0.265944
     39 H                     0.402636
     40 H                     0.283877
     41 H                     0.066823
     42 H                     0.288310
     43 H                     0.182997
     44 H                     0.247732
     45 H                     0.283491
     46 H                     0.300349
     47 H                     0.049685
     48 H                     0.217193
     49 H                     0.249387
     50 H                     0.168508
     51 H                     0.220063
     52 H                     0.155711
     53 H                     0.200284
     54 H                     0.223235
     55 H                     0.137354
  ----------------------------------------
  Sum of atomic charges =     2.000000

                    Cartesian Multipole Moments
 -----------------------------------------------------------------
    Charge (ESU x 10^10)
                 9.6064
    Dipole Moment (Debye)
         X     -12.5950      Y      -4.0145      Z       8.2309
       Tot      15.5723
    Quadrupole Moments (Debye-Ang)
        XX     -60.2463     XY      -4.2811     YY     -91.4796
        XZ     -10.0379     YZ      -0.0154     ZZ    -106.3658

 Total job time:  9.03s(wall), 9.01s(cpu)
        *  Thank you very much for using Q-Chem.  Have a nice day.  *
