 Q-Chem 4.2, Q-Chem, Inc., Pleasanton, CA (2014).
 Q-Chem 4.2.0.0  for Mac (Intel) OS X

User input:
--------------------------------------------------------------
$molecule
0 1
C   -4.3681500    2.0273000   -0.1260500
C   -3.1352100    2.9216600   -0.0954300
O   -1.9809200    2.1178700    0.0276400
C   -0.8365800    2.9446800    0.0330400
C    0.4127400    2.0726000    0.0368100
O    1.5479300    2.9104800    0.0378200
C    2.7191400    2.1239800    0.0133400
C    3.9289800    3.0490500    0.0516100
O    5.1077400    2.2728300    0.0390500
C    6.2301300    3.1271400    0.0974900
C    7.4944300    2.2837400    0.1999800
O    8.6114900    3.1437800    0.2718700
C    9.7849200    2.3795900    0.4440100
C   10.9764400    3.3255800    0.5569500
O   -5.5121800    2.8389400   -0.2787200
C   -6.6659200    2.0280600   -0.3386800
C   -7.8638200    2.9044600   -0.6826900
O   -9.0209300    2.0994800   -0.7495400
C  -10.1176000    2.8886100   -1.1574800
C  -11.3632600    2.0174700   -1.2083800
O   12.1657000    2.5991700    0.7085300
H   -4.4123600    1.4575600    0.8305800
H   -4.2599300    1.3311300   -0.9896300
H   -3.2294100    3.6130600    0.7734600
H   -3.1133000    3.4973500   -1.0495500
H   -0.8214900    3.5805700    0.9477000
H   -0.7973800    3.5805800   -0.8819500
H    0.3911900    1.4373800   -0.8787300
H    0.3899700    1.4376500    0.9521600
H    2.7710600    1.5231400   -0.9236600
H    2.7671100    1.4584500    0.9060400
H    3.8636200    3.6521500    0.9867700
H    3.8857700    3.7130800   -0.8424900
H    6.1884500    3.7794300    1.0008100
H    6.2969700    3.7473600   -0.8257400
H    7.5566800    1.6346400   -0.7034100
H    7.4119100    1.6615800    1.1212300
H    9.9525100    1.7137400   -0.4333900
H    9.7339100    1.7821500    1.3832800
H   10.8400300    4.0289800    1.4102900
H   11.0529300    3.9387800   -0.3660300
H   -6.8511000    1.5450000    0.6476200
H   -6.5755100    1.2561100   -1.1381300
H   -7.6570100    3.3865800   -1.6666600
H   -7.9707600    3.6772800    0.1128300
H   -9.9505000    3.3006400   -2.1790200
H  -10.3067200    3.7121200   -0.4312800
H  -11.2171300    1.1865000   -1.9309500
H  -12.2346200    2.6256900   -1.5311300
H  -11.5724100    1.5931400   -0.2034500
H   12.2094800    2.3201700    1.6604000
$end

$rem
BASIS  =  6-31G*
GUI  =  2
JOB_TYPE  =  Optimization
METHOD  =  B3LYP
SCF_CONVERGENCE  =  8
$end
--------------------------------------------------------------

   13   -1078.0058011373      5.94E-09 Convergence criterion met
 Total energy in the final basis set = -1078.0058011373
   11   -1078.0181900767      5.88E-09 Convergence criterion met
 Total energy in the final basis set = -1078.0181900767
   11   -1078.0191367231      3.65E-09 Convergence criterion met
 Total energy in the final basis set = -1078.0191367231
   11   -1078.0193298972      4.74E-09 Convergence criterion met
 Total energy in the final basis set = -1078.0193298972
   10   -1078.0194387372      8.06E-09 Convergence criterion met
 Total energy in the final basis set = -1078.0194387372
   10   -1078.0194759375      4.08E-09 Convergence criterion met
 Total energy in the final basis set = -1078.0194759375
    9   -1078.0194912134      9.13E-09 Convergence criterion met
 Total energy in the final basis set = -1078.0194912134
    9   -1078.0194986445      4.17E-09 Convergence criterion met
 Total energy in the final basis set = -1078.0194986445
    8   -1078.0194997090      5.58E-09 Convergence criterion met
 Total energy in the final basis set = -1078.0194997090

             Standard Nuclear Orientation (Angstroms)
    I     Atom           X                Y                Z
 ----------------------------------------------------------------
    1      C       4.7163482754    -0.4395525590    -0.0374688516
    2      C       3.5401305214     0.5239220540     0.0291142961
    3      O       2.3559606482    -0.2499488040     0.0286727707
    4      C       1.1775396558     0.5307487614    -0.0147499334
    5      C      -0.0042907660    -0.4199504083     0.1072816478
    6      O      -1.1859842299     0.3476943653    -0.0153456376
    7      C      -2.3648595603    -0.4226546114     0.1143505919
    8      C      -3.5488267153     0.5096975911    -0.0958017564
    9      O      -4.7271346441    -0.2580482559     0.0557977168
   10      C      -5.9105860685     0.4960382475    -0.1205495744
   11      C      -7.0878522481    -0.4436469080     0.0946170377
   12      O      -8.2734410246     0.3043363261    -0.0946566967
   13      C      -9.4505612065    -0.4590349985     0.0794114039
   14      C     -10.6517312728     0.4562593152    -0.1451703343
   15      O       5.9009454729     0.3266621702     0.0569285716
   16      C       7.0779235396    -0.4512238604    -0.0511585401
   17      C       8.2654739514     0.4798871646     0.1438844494
   18      O       9.4404693250    -0.2907965397    -0.0022988903
   19      C      10.6285305971     0.4656157606     0.1634348394
   20      C      11.8194173454    -0.4563007409    -0.0399691222
   21      O     -11.8778177314    -0.2413302992     0.0276699770
   22      H       4.6827534214    -1.0051877806    -0.9823554168
   23      H       4.6472720228    -1.1663499899     0.7880460635
   24      H       3.5679507930     1.2079677411    -0.8341972980
   25      H       3.6136802757     1.1361602499     0.9421819670
   26      H       1.1071562606     1.0915743156    -0.9605724087
   27      H       1.1552197729     1.2627648301     0.8086340018
   28      H       0.0327027996    -0.9392396919     1.0782065493
   29      H       0.0529878671    -1.1865908824    -0.6823275524
   30      H      -2.4283506823    -0.8864275890     1.1117877483
   31      H      -2.3920243002    -1.2331452058    -0.6316852765
   32      H      -3.4953069459     0.9603678983    -1.0997394101
   33      H      -3.5133514349     1.3294104844     0.6396719006
   34      H      -5.9587845222     0.9283996985    -1.1328504203
   35      H      -5.9605548817     1.3282434134     0.5997476538
   36      H      -7.0448804871    -0.8688313806     1.1100133123
   37      H      -7.0306676773    -1.2810392139    -0.6195973546
   38      H      -9.4996913955    -0.8922010685     1.0912788062
   39      H      -9.4771857366    -1.2990004280    -0.6392878134
   40      H     -10.5765819364     0.9247718020    -1.1379714944
   41      H     -10.6458293533     1.2576999285     0.5991449468
   42      H       7.1432287065    -0.9359932412    -1.0383814727
   43      H       7.0980755831    -1.2461142632     0.7116273941
   44      H       8.2140052732     0.9443172824     1.1423108559
   45      H       8.2266909142     1.2917811622    -0.6010667580
   46      H      10.6528595373     0.9164595052     1.1703238024
   47      H      10.6512944399     1.2959173545    -0.5631132677
   48      H      11.8010748584    -1.2737046906     0.6882349175
   49      H      12.7568560419     0.0973654390     0.0821459523
   50      H      11.8004983110    -0.8915496480    -1.0443423769
   51      H     -11.9701942042    -0.8634054077    -0.7102916597
 ----------------------------------------------------------------

    7   -1078.0194999471      4.05E-09 Convergence criterion met
 Total energy in the final basis set = -1078.0194999471
 Final energy is   -1078.01949994715
 **  OPTIMIZATION CONVERGED  **

                    Orbital Energies (a.u.)
 --------------------------------------------------------------

 Alpha MOs
 -- Occupied --
-19.154 -19.154 -19.153 -19.152 -19.151 -19.148 -19.146 -10.234
-10.233 -10.233 -10.233 -10.233 -10.233 -10.232 -10.232 -10.231
-10.231 -10.231 -10.230 -10.229 -10.177  -1.046  -1.043  -1.039
 -1.035  -1.031  -1.027  -1.018  -0.792  -0.782  -0.768  -0.749
 -0.727  -0.703  -0.680  -0.625  -0.617  -0.611  -0.608  -0.607
 -0.604  -0.602  -0.521  -0.517  -0.511  -0.509  -0.503  -0.496
 -0.493  -0.484  -0.474  -0.471  -0.470  -0.459  -0.455  -0.451
 -0.445  -0.439  -0.435  -0.421  -0.416  -0.406  -0.394  -0.389
 -0.384  -0.377  -0.368  -0.363  -0.352  -0.348  -0.345  -0.334
 -0.327  -0.324  -0.321  -0.320  -0.319  -0.315  -0.272  -0.266
 -0.263  -0.260  -0.257  -0.255  -0.252

          Ground-State Mulliken Net Atomic Charges

     Atom                 Charge (a.u.)
  ----------------------------------------
      1 C                    -0.020457
      2 C                    -0.021743
      3 O                    -0.491514
      4 C                    -0.021407
      5 C                    -0.021239
      6 O                    -0.491616
      7 C                    -0.020990
      8 C                    -0.021401
      9 O                    -0.491869
     10 C                    -0.021236
     11 C                    -0.022012
     12 O                    -0.486242
     13 C                    -0.021231
     14 C                    -0.053197
     15 O                    -0.491873
     16 C                    -0.021458
     17 C                    -0.021390
     18 O                    -0.479701
     19 C                    -0.001325
     20 C                    -0.453590
     21 O                    -0.612038
     22 H                     0.131788
     23 H                     0.134108
     24 H                     0.132086
     25 H                     0.134793
     26 H                     0.134580
     27 H                     0.132378
     28 H                     0.132664
     29 H                     0.134300
     30 H                     0.133976
     31 H                     0.132702
     32 H                     0.133173
     33 H                     0.134122
     34 H                     0.133247
     35 H                     0.134178
     36 H                     0.134305
     37 H                     0.131693
     38 H                     0.135165
     39 H                     0.107066
     40 H                     0.134558
     41 H                     0.161097
     42 H                     0.133714
     43 H                     0.132377
     44 H                     0.129136
     45 H                     0.129899
     46 H                     0.120168
     47 H                     0.119880
     48 H                     0.158436
     49 H                     0.143440
     50 H                     0.158333
     51 H                     0.390169
  ----------------------------------------
  Sum of atomic charges =     0.000000

                    Cartesian Multipole Moments
 -----------------------------------------------------------------
    Charge (ESU x 10^10)
                 0.0000
    Dipole Moment (Debye)
         X       1.2086      Y      -0.3259      Z      -0.9774
       Tot       1.5882
    Quadrupole Moments (Debye-Ang)
        XX    -131.7663     XY      15.5453     YY    -128.5635
        XZ      14.9802     YZ       1.5043     ZZ    -126.7583

 Total job time:  1018.21s(wall), 1015.17s(cpu)
        *  Thank you very much for using Q-Chem.  Have a nice day.  *
