 Q-Chem 4.2, Q-Chem, Inc., Pleasanton, CA (2014).
 Q-Chem 4.2.0.0  for Mac (Intel) OS X

User input:
--------------------------------------------------------------
$molecule
0 1
C   -3.1880572    3.2615189   -0.0062444
C   -1.9725305    2.3447196   -0.0611493
O   -0.7910744    3.0928131    0.0205607
H   -4.1170000    2.6552004   -0.0513119
H   -3.1748807    3.9638101   -0.8664995
H   -3.1824517    3.8435646    0.9396708
H   -1.9852557    1.7350135   -0.9932878
H   -2.0058182    1.6391908    0.7958726
H   -0.6369250    3.4810482   -0.8804685
$end

$rem
BASIS  =  6-31++G
JOB_TYPE  =  Optimization
METHOD  =  B3LYP
$end
--------------------------------------------------------------

   12    -154.9971545622      1.34E-09 Convergence criterion met
 Total energy in the final basis set = -154.9971545622
   10    -155.0018330150      4.95E-09 Convergence criterion met
 Total energy in the final basis set = -155.0018330150
   10    -155.0023087485      1.90E-09 Convergence criterion met
 Total energy in the final basis set = -155.0023087485
   10    -155.0024549343      3.18E-09 Convergence criterion met
 Total energy in the final basis set = -155.0024549343
   10    -155.0025208576      2.22E-09 Convergence criterion met
 Total energy in the final basis set = -155.0025208576
    8    -155.0025579572      8.71E-09 Convergence criterion met
 Total energy in the final basis set = -155.0025579572
    8    -155.0025762158      8.22E-09 Convergence criterion met
 Total energy in the final basis set = -155.0025762158
    8    -155.0025801613      5.45E-09 Convergence criterion met
 Total energy in the final basis set = -155.0025801613

             Standard Nuclear Orientation (Angstroms)
    I     Atom           X                Y                Z
 ----------------------------------------------------------------
    1      C       1.2072727051    -0.2399342065    -0.0019922163
    2      C      -0.0664602283     0.5986322369    -0.0634432507
    3      O      -1.2802144053    -0.2119420871     0.0994645371
    4      H       2.0954864996     0.4028639232    -0.0525311302
    5      H       1.2615898949    -0.9478762924    -0.8396483873
    6      H       1.2454036399    -0.8105165491     0.9319236125
    7      H      -0.1212857190     1.1655367478    -1.0034787843
    8      H      -0.1138760329     1.3073220627     0.7659862750
    9      H      -1.3649975894    -0.8661465761    -0.6234351808
 ----------------------------------------------------------------

    7    -155.0025804048      9.85E-09 Convergence criterion met
 Total energy in the final basis set = -155.0025804048
 Final energy is   -155.002580404812
 **  OPTIMIZATION CONVERGED  **

                    Orbital Energies (a.u.)
 --------------------------------------------------------------

 Alpha MOs
 -- Occupied --
-19.152 -10.240 -10.185  -1.021  -0.761  -0.636  -0.507  -0.462
 -0.436  -0.391  -0.376  -0.327  -0.279

          Ground-State Mulliken Net Atomic Charges

     Atom                 Charge (a.u.)
  ----------------------------------------
      1 C                    -0.638076
      2 C                    -0.334991
      3 O                    -0.514774
      4 H                     0.188264
      5 H                     0.207726
      6 H                     0.241805
      7 H                     0.206706
      8 H                     0.243471
      9 H                     0.399870
  ----------------------------------------
  Sum of atomic charges =     0.000000

                    Cartesian Multipole Moments
 -----------------------------------------------------------------
    Charge (ESU x 10^10)
                 0.0000
    Dipole Moment (Debye)
         X       1.7131      Y      -0.1046      Z      -1.5321
       Tot       2.3006
    Quadrupole Moments (Debye-Ang)
        XX     -23.4370     XY       1.2479     YY     -18.9106
        XZ       2.5007     YZ       1.5599     ZZ     -19.6750

 Total job time:  20.80s(wall), 20.31s(cpu)
        *  Thank you very much for using Q-Chem.  Have a nice day.  *
